# vtk DataFile Version 2.0
test grain
ASCII
DATASET UNSTRUCTURED_GRID
POINTS 4 float
0.211325 0.211052 0.
0.788675 0.211052 0.
0.211325 0.787658 0.
0.788675 0.787658 0.
CELLS 4 8
1 0
1 1
1 2
1 3
CELL_TYPES 4
1 
1 
1 
1 
POINT_DATA 4
VECTORS Stress float
1.09895e-10 -48109.9 0.
1.09895e-10 -48109.9 0.
8.35513e-10 -48109.9 0.
8.35513e-10 -48109.9 0.
