# vtk DataFile Version 2.0
test grain
ASCII
DATASET UNSTRUCTURED_GRID
POINTS 4 float
0.211325 0.21101 0.
0.788675 0.21101 0.
0.211325 0.7875 0.
0.788675 0.7875 0.
CELLS 4 8
1 0
1 1
1 2
1 3
CELL_TYPES 4
1 
1 
1 
1 
POINT_DATA 4
VECTORS Stress float
5.85159e-10 -49948.4 0.
5.85159e-10 -49948.4 0.
3.20347e-10 -49948.4 0.
3.20347e-10 -49948.4 0.
