# vtk DataFile Version 2.0
test grain
ASCII
DATASET UNSTRUCTURED_GRID
POINTS 4 float
0.211325 0.211013 0.
0.788675 0.211013 0.
0.211325 0.787511 0.
0.788675 0.787511 0.
CELLS 4 8
1 0
1 1
1 2
1 3
CELL_TYPES 4
1 
1 
1 
1 
POINT_DATA 4
VECTORS Stress float
1.57195e-10 -49821.6 0.
1.57195e-10 -49821.6 0.
7.69786e-10 -49821.6 0.
7.69786e-10 -49821.6 0.
