# vtk DataFile Version 2.0
test grain
ASCII
DATASET UNSTRUCTURED_GRID
POINTS 4 float
0.211325 0.211012 0.
0.788675 0.211012 0.
0.211325 0.787507 0.
0.788675 0.787507 0.
CELLS 4 8
1 0
1 1
1 2
1 3
CELL_TYPES 4
1 
1 
1 
1 
POINT_DATA 4
VECTORS Velocity float
-4.52385e-16 0.000134601 0.
-1.68832e-15 0.000134601 0.
-1.20376e-15 0.000502337 0.
-4.49249e-15 0.000502337 0.
