# vtk DataFile Version 2.0
test grain
ASCII
DATASET UNSTRUCTURED_GRID
POINTS 4 float
0.211325 0.21101 0.
0.788675 0.21101 0.
0.211325 0.7875 0.
0.788675 0.7875 0.
CELLS 4 8
1 0
1 1
1 2
1 3
CELL_TYPES 4
1 
1 
1 
1 
POINT_DATA 4
VECTORS Velocity float
-4.84764e-16 2.39909e-05 0.
-1.80916e-15 2.39909e-05 0.
-1.14283e-15 8.95352e-05 0.
-4.2651e-15 8.95352e-05 0.
