# vtk DataFile Version 2.0
test grain
ASCII
DATASET UNSTRUCTURED_GRID
POINTS 4 float
0.211325 0.21101 0.
0.788675 0.21101 0.
0.211325 0.7875 0.
0.788675 0.7875 0.
CELLS 4 8
1 0
1 1
1 2
1 3
CELL_TYPES 4
1 
1 
1 
1 
POINT_DATA 4
VECTORS Velocity float
5.13426e-16 5.30063e-05 0.
1.91613e-15 5.30063e-05 0.
-9.23487e-16 0.000197822 0.
-3.4465e-15 0.000197822 0.
