# vtk DataFile Version 2.0
test grain
ASCII
DATASET UNSTRUCTURED_GRID
POINTS 4 float
0.211325 0.211011 0.
0.788675 0.211011 0.
0.211325 0.787502 0.
0.788675 0.787502 0.
CELLS 4 8
1 0
1 1
1 2
1 3
CELL_TYPES 4
1 
1 
1 
1 
POINT_DATA 4
VECTORS Velocity float
4.49956e-16 -2.07467e-06 0.
1.67926e-15 -2.07467e-06 0.
2.42246e-16 -7.74278e-06 0.
9.04073e-16 -7.74278e-06 0.
