# vtk DataFile Version 2.0
test grain
ASCII
DATASET UNSTRUCTURED_GRID
POINTS 4 float
0.211325 0.211332 0.
0.788675 0.211332 0.
0.211325 0.788701 0.
0.788675 0.788701 0.
CELLS 4 8
1 0
1 1
1 2
1 3
CELL_TYPES 4
1 
1 
1 
1 
POINT_DATA 4
VECTORS Velocity float
-3.75624e-18 8.12579e-06 0.
-1.40185e-17 8.12579e-06 0.
1.57175e-15 3.03259e-05 0.
5.86585e-15 3.03259e-05 0.
