# vtk DataFile Version 2.0
test grain
ASCII
DATASET UNSTRUCTURED_GRID
POINTS 4 float
0.211325 0.211003 0.
0.788675 0.211003 0.
0.211325 0.787472 0.
0.788675 0.787472 0.
CELLS 4 8
1 0
1 1
1 2
1 3
CELL_TYPES 4
1 
1 
1 
1 
POINT_DATA 4
VECTORS Velocity float
-1.20969e-16 -0.0012875 0.
-4.51463e-16 -0.0012875 0.
1.67059e-16 -0.00480502 0.
6.23473e-16 -0.00480502 0.
