# vtk DataFile Version 2.0
test grain
ASCII
DATASET UNSTRUCTURED_GRID
POINTS 4 float
0.211325 0.211011 0.
0.788675 0.211011 0.
0.211325 0.787504 0.
0.788675 0.787504 0.
CELLS 4 8
1 0
1 1
1 2
1 3
CELL_TYPES 4
1 
1 
1 
1 
POINT_DATA 4
VECTORS Velocity float
-4.34698e-16 -0.000915897 0.
-1.62232e-15 -0.000915897 0.
5.34672e-16 -0.00341817 0.
1.99542e-15 -0.00341817 0.
