# vtk DataFile Version 2.0
test grain
ASCII
DATASET UNSTRUCTURED_GRID
POINTS 4 float
0.211325 0.210964 0.
0.788675 0.210964 0.
0.211325 0.787327 0.
0.788675 0.787327 0.
CELLS 4 8
1 0
1 1
1 2
1 3
CELL_TYPES 4
1 
1 
1 
1 
POINT_DATA 4
VECTORS Velocity float
3.79918e-16 0.00400735 0.
1.41787e-15 0.00400735 0.
-2.12071e-16 0.0149556 0.
-7.91458e-16 0.0149556 0.
