# vtk DataFile Version 2.0
test grain
ASCII
DATASET UNSTRUCTURED_GRID
POINTS 4 float
0.211325 0.210985 0.
0.788675 0.210985 0.
0.211325 0.787406 0.
0.788675 0.787406 0.
CELLS 4 8
1 0
1 1
1 2
1 3
CELL_TYPES 4
1 
1 
1 
1 
POINT_DATA 4
VECTORS Velocity float
1.34721e-15 -0.00107527 0.
5.02786e-15 -0.00107527 0.
3.17563e-16 -0.00401298 0.
1.18516e-15 -0.00401298 0.
