# vtk DataFile Version 2.0
test grain
ASCII
DATASET UNSTRUCTURED_GRID
POINTS 4 float
0.211325 0.21101 0.
0.788675 0.21101 0.
0.211325 0.787501 0.
0.788675 0.787501 0.
CELLS 4 8
1 0
1 1
1 2
1 3
CELL_TYPES 4
1 
1 
1 
1 
POINT_DATA 4
VECTORS Velocity float
6.1119e-16 -1.34939e-05 0.
2.28099e-15 -1.34939e-05 0.
9.82608e-16 -5.03598e-05 0.
3.66714e-15 -5.03598e-05 0.
