# vtk DataFile Version 2.0
test grain
ASCII
DATASET UNSTRUCTURED_GRID
POINTS 4 float
0.211325 0.210996 0.
0.788675 0.210996 0.
0.211325 0.787449 0.
0.788675 0.787449 0.
CELLS 4 8
1 0
1 1
1 2
1 3
CELL_TYPES 4
1 
1 
1 
1 
POINT_DATA 4
VECTORS Velocity float
3.95183e-16 -0.0013375 0.
1.47484e-15 -0.0013375 0.
-4.68807e-16 -0.00499162 0.
-1.74961e-15 -0.00499162 0.
