# vtk DataFile Version 2.0
test grain
ASCII
DATASET UNSTRUCTURED_GRID
POINTS 4 float
0.211325 0.210966 0.
0.788675 0.210966 0.
0.211325 0.787337 0.
0.788675 0.787337 0.
CELLS 4 8
1 0
1 1
1 2
1 3
CELL_TYPES 4
1 
1 
1 
1 
POINT_DATA 4
VECTORS Velocity float
1.07974e-17 0.000808903 0.
4.02964e-17 0.000808903 0.
4.70042e-17 0.00301887 0.
1.75422e-16 0.00301887 0.
