# vtk DataFile Version 2.0
test grain
ASCII
DATASET UNSTRUCTURED_GRID
POINTS 4 float
0.211325 0.21101 0.
0.788675 0.21101 0.
0.211325 0.787502 0.
0.788675 0.787502 0.
CELLS 4 8
1 0
1 1
1 2
1 3
CELL_TYPES 4
1 
1 
1 
1 
POINT_DATA 4
VECTORS Velocity float
4.37573e-17 -1.15925e-05 0.
1.63304e-16 -1.15925e-05 0.
1.53445e-15 -4.32639e-05 0.
5.72665e-15 -4.32639e-05 0.
