# vtk DataFile Version 2.0
test grain
ASCII
DATASET UNSTRUCTURED_GRID
POINTS 4 float
0.211325 0.211 0.
0.788675 0.211 0.
0.211325 0.787462 0.
0.788675 0.787462 0.
CELLS 4 8
1 0
1 1
1 2
1 3
CELL_TYPES 4
1 
1 
1 
1 
POINT_DATA 4
VECTORS Velocity float
-1.33079e-15 0.00955608 0.
-4.96656e-15 0.00955608 0.
-1.72254e-16 0.0356638 0.
-6.42862e-16 0.0356638 0.
