# vtk DataFile Version 2.0
test grain
ASCII
DATASET UNSTRUCTURED_GRID
POINTS 4 float
0.211325 0.211011 0.
0.788675 0.211011 0.
0.211325 0.787502 0.
0.788675 0.787502 0.
CELLS 4 8
1 0
1 1
1 2
1 3
CELL_TYPES 4
1 
1 
1 
1 
POINT_DATA 4
VECTORS Velocity float
2.7184e-16 -5.98015e-06 0.
1.01452e-15 -5.98015e-06 0.
3.78211e-16 -2.23182e-05 0.
1.4115e-15 -2.23182e-05 0.
