# vtk DataFile Version 2.0
test grain
ASCII
DATASET UNSTRUCTURED_GRID
POINTS 4 float
0.211325 0.21101 0.
0.788675 0.21101 0.
0.211325 0.787501 0.
0.788675 0.787501 0.
CELLS 4 8
1 0
1 1
1 2
1 3
CELL_TYPES 4
1 
1 
1 
1 
POINT_DATA 4
VECTORS Velocity float
-7.83084e-16 -5.21608e-06 0.
-2.92251e-15 -5.21608e-06 0.
2.8364e-16 -1.94667e-05 0.
1.05856e-15 -1.94667e-05 0.
