# vtk DataFile Version 2.0
test grain
ASCII
DATASET UNSTRUCTURED_GRID
POINTS 4 float
0.211325 0.211316 0.
0.788675 0.211316 0.
0.211325 0.78864 0.
0.788675 0.78864 0.
CELLS 4 8
1 0
1 1
1 2
1 3
CELL_TYPES 4
1 
1 
1 
1 
POINT_DATA 4
VECTORS Velocity float
-1.32081e-15 0.00322477 0.
-4.92931e-15 0.00322477 0.
7.69797e-16 0.012035 0.
2.87292e-15 0.012035 0.
