# vtk DataFile Version 2.0
test grain
ASCII
DATASET UNSTRUCTURED_GRID
POINTS 4 float
0.211325 0.211271 0.
0.788675 0.211271 0.
0.211325 0.788473 0.
0.788675 0.788473 0.
CELLS 4 8
1 0
1 1
1 2
1 3
CELL_TYPES 4
1 
1 
1 
1 
POINT_DATA 4
VECTORS Velocity float
-8.07898e-16 0.00853058 0.
-3.01511e-15 0.00853058 0.
1.52134e-15 0.0318366 0.
5.67771e-15 0.0318366 0.
