# vtk DataFile Version 2.0
test grain
ASCII
DATASET UNSTRUCTURED_GRID
POINTS 4 float
0.211325 0.211215 0.
0.788675 0.211215 0.
0.211325 0.788265 0.
0.788675 0.788265 0.
CELLS 4 8
1 0
1 1
1 2
1 3
CELL_TYPES 4
1 
1 
1 
1 
POINT_DATA 4
VECTORS Velocity float
-9.91581e-16 0.0120025 0.
-3.70063e-15 0.0120025 0.
8.26949e-16 0.0447938 0.
3.08621e-15 0.0447938 0.
