# vtk DataFile Version 2.0
test grain
ASCII
DATASET UNSTRUCTURED_GRID
POINTS 4 float
0.211325 0.211015 0.
0.788675 0.211015 0.
0.211325 0.787518 0.
0.788675 0.787518 0.
CELLS 4 8
1 0
1 1
1 2
1 3
CELL_TYPES 4
1 
1 
1 
1 
POINT_DATA 4
VECTORS Velocity float
-1.41636e-15 -5.78795e-05 0.
-5.28592e-15 -5.78795e-05 0.
-2.57406e-16 -0.000216009 0.
-9.60652e-16 -0.000216009 0.
