# vtk DataFile Version 2.0
test grain
ASCII
DATASET UNSTRUCTURED_GRID
POINTS 4 float
0.211325 0.210962 0.
0.788675 0.210962 0.
0.211325 0.787322 0.
0.788675 0.787322 0.
CELLS 4 8
1 0
1 1
1 2
1 3
CELL_TYPES 4
1 
1 
1 
1 
POINT_DATA 4
VECTORS Velocity float
1.02692e-15 0.00306619 0.
3.83251e-15 0.00306619 0.
7.0946e-16 0.0114432 0.
2.64774e-15 0.0114432 0.
