# vtk DataFile Version 2.0
test grain
ASCII
DATASET UNSTRUCTURED_GRID
POINTS 4 float
0.211325 0.211015 0.
0.788675 0.211015 0.
0.211325 0.787518 0.
0.788675 0.787518 0.
CELLS 4 8
1 0
1 1
1 2
1 3
CELL_TYPES 4
1 
1 
1 
1 
POINT_DATA 4
VECTORS Velocity float
-3.37055e-16 -0.0001198 0.
-1.25791e-15 -0.0001198 0.
5.43563e-16 -0.000447101 0.
2.02861e-15 -0.000447101 0.
