# vtk DataFile Version 2.0
test grain
ASCII
DATASET UNSTRUCTURED_GRID
POINTS 4 float
0.211325 0.211 0.
0.788675 0.211 0.
0.211325 0.787461 0.
0.788675 0.787461 0.
CELLS 4 8
1 0
1 1
1 2
1 3
CELL_TYPES 4
1 
1 
1 
1 
POINT_DATA 4
VECTORS Velocity float
1.11609e-15 -0.00132957 0.
4.16529e-15 -0.00132957 0.
5.44708e-16 -0.00496201 0.
2.03288e-15 -0.00496201 0.
