# vtk DataFile Version 2.0
test grain
ASCII
DATASET UNSTRUCTURED_GRID
POINTS 4 float
0.211325 0.211013 0.
0.788675 0.211013 0.
0.211325 0.787512 0.
0.788675 0.787512 0.
CELLS 4 8
1 0
1 1
1 2
1 3
CELL_TYPES 4
1 
1 
1 
1 
POINT_DATA 4
VECTORS Velocity float
-6.25432e-16 9.63489e-05 0.
-2.33415e-15 9.63489e-05 0.
-1.03907e-15 0.000359579 0.
-3.87785e-15 0.000359579 0.
