# vtk DataFile Version 2.0
test grain
ASCII
DATASET UNSTRUCTURED_GRID
POINTS 4 float
0.211325 0.211008 0.
0.788675 0.211008 0.
0.211325 0.787491 0.
0.788675 0.787491 0.
CELLS 4 8
1 0
1 1
1 2
1 3
CELL_TYPES 4
1 
1 
1 
1 
POINT_DATA 4
VECTORS Velocity float
-8.85876e-16 -0.00112993 0.
-3.30613e-15 -0.00112993 0.
7.71041e-16 -0.00421694 0.
2.87757e-15 -0.00421694 0.
