# vtk DataFile Version 2.0
test grain
ASCII
DATASET UNSTRUCTURED_GRID
POINTS 4 float
0.211325 0.211075 0.
0.788675 0.211075 0.
0.211325 0.787743 0.
0.788675 0.787743 0.
CELLS 4 8
1 0
1 1
1 2
1 3
CELL_TYPES 4
1 
1 
1 
1 
POINT_DATA 4
VECTORS Velocity float
-1.29934e-15 0.0132298 0.
-4.84922e-15 0.0132298 0.
-1.16482e-16 0.0493742 0.
-4.34718e-16 0.0493742 0.
