# vtk DataFile Version 2.0
test grain
ASCII
DATASET UNSTRUCTURED_GRID
POINTS 4 float
0.211325 0.210993 0.
0.788675 0.210993 0.
0.211325 0.787436 0.
0.788675 0.787436 0.
CELLS 4 8
1 0
1 1
1 2
1 3
CELL_TYPES 4
1 
1 
1 
1 
POINT_DATA 4
VECTORS Velocity float
-3.1978e-16 -0.00130336 0.
-1.19343e-15 -0.00130336 0.
-1.39327e-15 -0.00486422 0.
-5.19975e-15 -0.00486422 0.
