# vtk DataFile Version 2.0
test grain
ASCII
DATASET UNSTRUCTURED_GRID
POINTS 4 float
0.211325 0.21101 0.
0.788675 0.21101 0.
0.211325 0.787502 0.
0.788675 0.787502 0.
CELLS 4 8
1 0
1 1
1 2
1 3
CELL_TYPES 4
1 
1 
1 
1 
POINT_DATA 4
VECTORS Velocity float
-8.79729e-16 -1.24596e-05 0.
-3.28319e-15 -1.24596e-05 0.
2.93345e-16 -4.64998e-05 0.
1.09478e-15 -4.64998e-05 0.
