# vtk DataFile Version 2.0
test grain
ASCII
DATASET UNSTRUCTURED_GRID
POINTS 4 float
0.211325 0.210964 0.
0.788675 0.210964 0.
0.211325 0.787328 0.
0.788675 0.787328 0.
CELLS 4 8
1 0
1 1
1 2
1 3
CELL_TYPES 4
1 
1 
1 
1 
POINT_DATA 4
VECTORS Velocity float
-7.37029e-16 0.0014629 0.
-2.75063e-15 0.0014629 0.
-9.27492e-16 0.00545964 0.
-3.46145e-15 0.00545964 0.
