# vtk DataFile Version 2.0
test grain
ASCII
DATASET UNSTRUCTURED_GRID
POINTS 4 float
0.211325 0.211014 0.
0.788675 0.211014 0.
0.211325 0.787516 0.
0.788675 0.787516 0.
CELLS 4 8
1 0
1 1
1 2
1 3
CELL_TYPES 4
1 
1 
1 
1 
POINT_DATA 4
VECTORS Velocity float
9.97134e-16 -0.000572261 0.
3.72135e-15 -0.000572261 0.
6.73508e-16 -0.00213571 0.
2.51357e-15 -0.00213571 0.
