# vtk DataFile Version 2.0
test grain
ASCII
DATASET UNSTRUCTURED_GRID
POINTS 4 float
0.211325 0.21101 0.
0.788675 0.21101 0.
0.211325 0.7875 0.
0.788675 0.7875 0.
CELLS 4 8
1 0
1 1
1 2
1 3
CELL_TYPES 4
1 
1 
1 
1 
POINT_DATA 4
VECTORS Velocity float
1.51736e-15 4.25023e-05 0.
5.66285e-15 4.25023e-05 0.
1.17244e-16 0.000158621 0.
4.37562e-16 0.000158621 0.
