# vtk DataFile Version 2.0
test grain
ASCII
DATASET UNSTRUCTURED_GRID
POINTS 4 float
0.211325 0.210977 0.
0.788675 0.210977 0.
0.211325 0.787376 0.
0.788675 0.787376 0.
CELLS 4 8
1 0
1 1
1 2
1 3
CELL_TYPES 4
1 
1 
1 
1 
POINT_DATA 4
VECTORS Velocity float
-6.18821e-16 -0.000577329 0.
-2.30947e-15 -0.000577329 0.
-1.08294e-15 -0.00215462 0.
-4.0416e-15 -0.00215462 0.
