# vtk DataFile Version 2.0
test grain
ASCII
DATASET UNSTRUCTURED_GRID
POINTS 4 float
0.211325 0.211354 0.
0.788675 0.211354 0.
0.211325 0.788782 0.
0.788675 0.788782 0.
CELLS 4 8
1 0
1 1
1 2
1 3
CELL_TYPES 4
1 
1 
1 
1 
POINT_DATA 4
VECTORS Velocity float
-8.30083e-16 -0.0101914 0.
-3.09791e-15 -0.0101914 0.
-3.89824e-16 -0.0380348 0.
-1.45484e-15 -0.0380348 0.
