# vtk DataFile Version 2.0
test grain
ASCII
DATASET UNSTRUCTURED_GRID
POINTS 4 float
0.211325 0.21101 0.
0.788675 0.21101 0.
0.211325 0.787501 0.
0.788675 0.787501 0.
CELLS 4 8
1 0
1 1
1 2
1 3
CELL_TYPES 4
1 
1 
1 
1 
POINT_DATA 4
VECTORS Velocity float
4.73141e-16 -8.26902e-06 0.
1.76579e-15 -8.26902e-06 0.
1.1352e-15 -3.08604e-05 0.
4.23661e-15 -3.08604e-05 0.
