# vtk DataFile Version 2.0
test grain
ASCII
DATASET UNSTRUCTURED_GRID
POINTS 4 float
0.211325 0.211011 0.
0.788675 0.211011 0.
0.211325 0.787502 0.
0.788675 0.787502 0.
CELLS 4 8
1 0
1 1
1 2
1 3
CELL_TYPES 4
1 
1 
1 
1 
POINT_DATA 4
VECTORS Velocity float
-1.56523e-16 -3.85946e-06 0.
-5.84153e-16 -3.85946e-06 0.
-5.148e-16 -1.44037e-05 0.
-1.92126e-15 -1.44037e-05 0.
