# vtk DataFile Version 2.0
test grain
ASCII
DATASET UNSTRUCTURED_GRID
POINTS 4 float
0.211325 0.211014 0.
0.788675 0.211014 0.
0.211325 0.787517 0.
0.788675 0.787517 0.
CELLS 4 8
1 0
1 1
1 2
1 3
CELL_TYPES 4
1 
1 
1 
1 
POINT_DATA 4
VECTORS Velocity float
-6.8621e-16 0.010656 0.
-2.56097e-15 0.010656 0.
6.92647e-16 0.0397687 0.
2.58499e-15 0.0397687 0.
