# vtk DataFile Version 2.0
test grain
ASCII
DATASET UNSTRUCTURED_GRID
POINTS 4 float
0.211325 0.211011 0.
0.788675 0.211011 0.
0.211325 0.787502 0.
0.788675 0.787502 0.
CELLS 4 8
1 0
1 1
1 2
1 3
CELL_TYPES 4
1 
1 
1 
1 
POINT_DATA 4
VECTORS Velocity float
-1.49132e-15 -9.46023e-06 0.
-5.56568e-15 -9.46023e-06 0.
-7.90219e-17 -3.53061e-05 0.
-2.94914e-16 -3.53061e-05 0.
