# vtk DataFile Version 2.0
test grain
ASCII
DATASET UNSTRUCTURED_GRID
POINTS 4 float
0.211325 0.210969 0.
0.788675 0.210969 0.
0.211325 0.787348 0.
0.788675 0.787348 0.
CELLS 4 8
1 0
1 1
1 2
1 3
CELL_TYPES 4
1 
1 
1 
1 
POINT_DATA 4
VECTORS Velocity float
6.91311e-16 0.000253333 0.
2.58001e-15 0.000253333 0.
9.95818e-16 0.000945452 0.
3.71644e-15 0.000945452 0.
