# vtk DataFile Version 2.0
test grain
ASCII
DATASET UNSTRUCTURED_GRID
POINTS 4 float
0.211325 0.210988 0.
0.788675 0.210988 0.
0.211325 0.787417 0.
0.788675 0.787417 0.
CELLS 4 8
1 0
1 1
1 2
1 3
CELL_TYPES 4
1 
1 
1 
1 
POINT_DATA 4
VECTORS Velocity float
-1.16137e-16 0.00840957 0.
-4.3343e-16 0.00840957 0.
4.2623e-16 0.031385 0.
1.59071e-15 0.031385 0.
