# vtk DataFile Version 2.0
test grain
ASCII
DATASET UNSTRUCTURED_GRID
POINTS 4 float
0.211325 0.211342 0.
0.788675 0.211342 0.
0.211325 0.788738 0.
0.788675 0.788738 0.
CELLS 4 8
1 0
1 1
1 2
1 3
CELL_TYPES 4
1 
1 
1 
1 
POINT_DATA 4
VECTORS Velocity float
-8.64378e-16 -0.00946572 0.
-3.2259e-15 -0.00946572 0.
-8.6133e-16 -0.0353265 0.
-3.21453e-15 -0.0353265 0.
