# vtk DataFile Version 2.0
test grain
ASCII
DATASET UNSTRUCTURED_GRID
POINTS 4 float
0.211325 0.210971 0.
0.788675 0.210971 0.
0.211325 0.787356 0.
0.788675 0.787356 0.
CELLS 4 8
1 0
1 1
1 2
1 3
CELL_TYPES 4
1 
1 
1 
1 
POINT_DATA 4
VECTORS Velocity float
3.58566e-17 0.00611813 0.
1.33819e-16 0.00611813 0.
-5.42817e-17 0.0228332 0.
-2.02582e-16 0.0228332 0.
