# vtk DataFile Version 2.0
test grain
ASCII
DATASET UNSTRUCTURED_GRID
POINTS 4 float
0.211325 0.211011 0.
0.788675 0.211011 0.
0.211325 0.787503 0.
0.788675 0.787503 0.
CELLS 4 8
1 0
1 1
1 2
1 3
CELL_TYPES 4
1 
1 
1 
1 
POINT_DATA 4
VECTORS Velocity float
-1.0513e-15 0.000109489 0.
-3.92352e-15 0.000109489 0.
-5.96377e-16 0.000408618 0.
-2.22571e-15 0.000408618 0.
