# vtk DataFile Version 2.0
test grain
ASCII
DATASET UNSTRUCTURED_GRID
POINTS 4 float
0.211325 0.210978 0.
0.788675 0.210978 0.
0.211325 0.787382 0.
0.788675 0.787382 0.
CELLS 4 8
1 0
1 1
1 2
1 3
CELL_TYPES 4
1 
1 
1 
1 
POINT_DATA 4
VECTORS Velocity float
8.2375e-16 0.00725324 0.
3.07428e-15 0.00725324 0.
9.88051e-16 0.0270695 0.
3.68746e-15 0.0270695 0.
