# vtk DataFile Version 2.0
test grain
ASCII
DATASET UNSTRUCTURED_GRID
POINTS 4 float
0.212128 0.211025 0.
0.791671 0.211025 0.
0.212128 0.787555 0.
0.791671 0.787555 0.
CELLS 4 8
1 0
1 1
1 2
1 3
CELL_TYPES 4
1 
1 
1 
1 
POINT_DATA 4
VECTORS Stress float
-1945.15 -49457.1 0.
-1945.15 -49457.1 0.
-1945.15 -49457.1 0.
-1945.15 -49457.1 0.
