# vtk DataFile Version 2.0
test grain
ASCII
DATASET UNSTRUCTURED_GRID
POINTS 4 float
0.212091 0.210897 0.
0.791533 0.210897 0.
0.212091 0.787078 0.
0.791533 0.787078 0.
CELLS 4 8
1 0
1 1
1 2
1 3
CELL_TYPES 4
1 
1 
1 
1 
POINT_DATA 4
VECTORS Stress float
-3451.15 -53198 0.
-3451.15 -53198 0.
-3451.15 -53198 0.
-3451.15 -53198 0.
