# vtk DataFile Version 2.0
test grain
ASCII
DATASET UNSTRUCTURED_GRID
POINTS 4 float
0.212189 0.211007 0.
0.7919 0.211007 0.
0.212189 0.787488 0.
0.7919 0.787488 0.
CELLS 4 8
1 0
1 1
1 2
1 3
CELL_TYPES 4
1 
1 
1 
1 
POINT_DATA 4
VECTORS Stress float
550.975 -50153.8 0.
550.975 -50153.8 0.
550.975 -50153.8 0.
550.975 -50153.8 0.
