# vtk DataFile Version 2.0
test grain
ASCII
DATASET UNSTRUCTURED_GRID
POINTS 4 float
0.212205 0.210903 0.
0.791959 0.210903 0.
0.212205 0.7871 0.
0.791959 0.7871 0.
CELLS 4 8
1 0
1 1
1 2
1 3
CELL_TYPES 4
1 
1 
1 
1 
POINT_DATA 4
VECTORS Stress float
1444.02 -54957.5 0.
1444.02 -54957.5 0.
1444.02 -54957.5 0.
1444.02 -54957.5 0.
