# vtk DataFile Version 2.0
test grain
ASCII
DATASET UNSTRUCTURED_GRID
POINTS 4 float
0.212149 0.21101 0.
0.79175 0.21101 0.
0.212149 0.787501 0.
0.79175 0.787501 0.
CELLS 4 8
1 0
1 1
1 2
1 3
CELL_TYPES 4
1 
1 
1 
1 
POINT_DATA 4
VECTORS Velocity float
0.00223023 -0.000792294 0.
0.00832333 -0.000792294 0.
0.00223023 -0.00295688 0.
0.00832333 -0.00295688 0.
