# vtk DataFile Version 2.0
test grain
ASCII
DATASET UNSTRUCTURED_GRID
POINTS 4 float
0.212178 0.211021 0.
0.791859 0.211021 0.
0.212178 0.787542 0.
0.791859 0.787542 0.
CELLS 4 8
1 0
1 1
1 2
1 3
CELL_TYPES 4
1 
1 
1 
1 
POINT_DATA 4
VECTORS Velocity float
0.00664837 -0.000636886 0.
0.0248121 -0.000636886 0.
0.00664837 -0.00237689 0.
0.0248121 -0.00237689 0.
