# vtk DataFile Version 2.0
test grain
ASCII
DATASET UNSTRUCTURED_GRID
POINTS 4 float
0.212166 0.211029 0.
0.791813 0.211029 0.
0.212166 0.787572 0.
0.791813 0.787572 0.
CELLS 4 8
1 0
1 1
1 2
1 3
CELL_TYPES 4
1 
1 
1 
1 
POINT_DATA 4
VECTORS Velocity float
-0.00153413 -4.34444e-05 0.
-0.00572546 -4.34444e-05 0.
-0.00153413 -0.000162137 0.
-0.00572546 -0.000162137 0.
