# vtk DataFile Version 2.0
test grain
ASCII
DATASET UNSTRUCTURED_GRID
POINTS 4 float
0.212245 0.210994 0.
0.79211 0.210994 0.
0.212245 0.787441 0.
0.79211 0.787441 0.
CELLS 4 8
1 0
1 1
1 2
1 3
CELL_TYPES 4
1 
1 
1 
1 
POINT_DATA 4
VECTORS Velocity float
-0.0112998 0.00158903 0.
-0.0421715 0.00158903 0.
-0.0112998 0.00593034 0.
-0.0421715 0.00593034 0.
