# vtk DataFile Version 2.0
test grain
ASCII
DATASET UNSTRUCTURED_GRID
POINTS 4 float
0.212101 0.211038 0.
0.791571 0.211038 0.
0.212101 0.787604 0.
0.791571 0.787604 0.
CELLS 4 8
1 0
1 1
1 2
1 3
CELL_TYPES 4
1 
1 
1 
1 
POINT_DATA 4
VECTORS Velocity float
0.000934098 -0.0191153 0.
0.0034861 -0.0191153 0.
0.000934098 -0.0713393 0.
0.0034861 -0.0713393 0.
