# vtk DataFile Version 2.0
test grain
ASCII
DATASET UNSTRUCTURED_GRID
POINTS 4 float
0.212169 0.211017 0.
0.791825 0.211017 0.
0.212169 0.787527 0.
0.791825 0.787527 0.
CELLS 4 8
1 0
1 1
1 2
1 3
CELL_TYPES 4
1 
1 
1 
1 
POINT_DATA 4
VECTORS Velocity float
5.93382e-05 0.000489161 0.
0.000221453 0.000489161 0.
5.93382e-05 0.00182557 0.
0.000221453 0.00182557 0.
