# vtk DataFile Version 2.0
test grain
ASCII
DATASET UNSTRUCTURED_GRID
POINTS 4 float
0.21219 0.210978 0.
0.791904 0.210978 0.
0.21219 0.787379 0.
0.791904 0.787379 0.
CELLS 4 8
1 0
1 1
1 2
1 3
CELL_TYPES 4
1 
1 
1 
1 
POINT_DATA 4
VECTORS Velocity float
0.00048501 -0.00746961 0.
0.00181008 -0.00746961 0.
0.00048501 -0.027877 0.
0.00181008 -0.027877 0.
