# vtk DataFile Version 2.0
test grain
ASCII
DATASET UNSTRUCTURED_GRID
POINTS 4 float
0.212029 0.211066 0.
0.791301 0.211066 0.
0.212029 0.787709 0.
0.791301 0.787709 0.
CELLS 4 8
1 0
1 1
1 2
1 3
CELL_TYPES 4
1 
1 
1 
1 
POINT_DATA 4
VECTORS Velocity float
-0.00581088 -0.00772533 0.
-0.0216865 -0.00772533 0.
-0.00581088 -0.0288313 0.
-0.0216865 -0.0288313 0.
