# vtk DataFile Version 2.0
test grain
ASCII
DATASET UNSTRUCTURED_GRID
POINTS 4 float
0.212178 0.210994 0.
0.791858 0.210994 0.
0.212178 0.787441 0.
0.791858 0.787441 0.
CELLS 4 8
1 0
1 1
1 2
1 3
CELL_TYPES 4
1 
1 
1 
1 
POINT_DATA 4
VECTORS Velocity float
0.00051536 -0.000204606 0.
0.00192335 -0.000204606 0.
0.00051536 -0.0007636 0.
0.00192335 -0.0007636 0.
