# vtk DataFile Version 2.0
test grain
ASCII
DATASET UNSTRUCTURED_GRID
POINTS 4 float
0.212078 0.210342 0.
0.791487 0.210342 0.
0.212078 0.785005 0.
0.791487 0.785005 0.
CELLS 4 8
1 0
1 1
1 2
1 3
CELL_TYPES 4
1 
1 
1 
1 
POINT_DATA 4
VECTORS Velocity float
-0.00705513 -0.0122163 0.
-0.0263301 -0.0122163 0.
-0.00705513 -0.0455919 0.
-0.0263301 -0.0455919 0.
