# vtk DataFile Version 2.0
test grain
ASCII
DATASET UNSTRUCTURED_GRID
POINTS 4 float
0.211995 0.211088 0.
0.791177 0.211088 0.
0.211995 0.787792 0.
0.791177 0.787792 0.
CELLS 4 8
1 0
1 1
1 2
1 3
CELL_TYPES 4
1 
1 
1 
1 
POINT_DATA 4
VECTORS Velocity float
0.0146424 -0.0399711 0.
0.054646 -0.0399711 0.
0.0146424 -0.149174 0.
0.054646 -0.149174 0.
