# vtk DataFile Version 2.0
test grain
ASCII
DATASET UNSTRUCTURED_GRID
POINTS 4 float
0.21213 0.210833 0.
0.791679 0.210833 0.
0.21213 0.78684 0.
0.791679 0.78684 0.
CELLS 4 8
1 0
1 1
1 2
1 3
CELL_TYPES 4
1 
1 
1 
1 
POINT_DATA 4
VECTORS Velocity float
-0.0276325 0.000236288 0.
-0.103126 0.000236288 0.
-0.0276325 0.00088184 0.
-0.103126 0.00088184 0.
