# vtk DataFile Version 2.0
test grain
ASCII
DATASET UNSTRUCTURED_GRID
POINTS 4 float
0.212166 0.211016 0.
0.791815 0.211016 0.
0.212166 0.787524 0.
0.791815 0.787524 0.
CELLS 4 8
1 0
1 1
1 2
1 3
CELL_TYPES 4
1 
1 
1 
1 
POINT_DATA 4
VECTORS Velocity float
0.000586798 4.3243e-05 0.
0.00218996 4.3243e-05 0.
0.000586798 0.000161385 0.
0.00218996 0.000161385 0.
