# vtk DataFile Version 2.0
test grain
ASCII
DATASET UNSTRUCTURED_GRID
POINTS 4 float
0.212441 0.211057 0.
0.792842 0.211057 0.
0.212441 0.787674 0.
0.792842 0.787674 0.
CELLS 4 8
1 0
1 1
1 2
1 3
CELL_TYPES 4
1 
1 
1 
1 
POINT_DATA 4
VECTORS Stress float
7871 -44103 0.
7871 -44103 0.
7871 -44103 0.
7871 -44103 0.
