# vtk DataFile Version 2.0
test grain
ASCII
DATASET UNSTRUCTURED_GRID
POINTS 4 float
0.212423 0.211017 0.
0.792772 0.211017 0.
0.212423 0.787525 0.
0.792772 0.787525 0.
CELLS 4 8
1 0
1 1
1 2
1 3
CELL_TYPES 4
1 
1 
1 
1 
POINT_DATA 4
VECTORS Velocity float
-6.65683e-06 -0.00163662 0.
-2.48436e-05 -0.00163662 0.
-6.65683e-06 -0.00610795 0.
-2.48436e-05 -0.00610795 0.
