# vtk DataFile Version 2.0
test grain
ASCII
DATASET UNSTRUCTURED_GRID
POINTS 4 float
0.212374 0.211052 0.
0.792589 0.211052 0.
0.212374 0.787655 0.
0.792589 0.787655 0.
CELLS 4 8
1 0
1 1
1 2
1 3
CELL_TYPES 4
1 
1 
1 
1 
POINT_DATA 4
VECTORS Velocity float
-0.000927645 0.001856 0.
-0.00346202 0.001856 0.
-0.000927645 0.00692669 0.
-0.00346202 0.00692669 0.
