# vtk DataFile Version 2.0
test grain
ASCII
DATASET UNSTRUCTURED_GRID
POINTS 4 float
0.212598 0.210815 0.
0.793425 0.210815 0.
0.212598 0.786771 0.
0.793425 0.786771 0.
CELLS 4 8
1 0
1 1
1 2
1 3
CELL_TYPES 4
1 
1 
1 
1 
POINT_DATA 4
VECTORS Velocity float
0.0143175 -0.0219617 0.
0.0534335 -0.0219617 0.
0.0143175 -0.0819622 0.
0.0534335 -0.0819622 0.
