# vtk DataFile Version 2.0
test grain
ASCII
DATASET UNSTRUCTURED_GRID
POINTS 4 float
0.212436 0.211013 0.
0.792823 0.211013 0.
0.212436 0.787511 0.
0.792823 0.787511 0.
CELLS 4 8
1 0
1 1
1 2
1 3
CELL_TYPES 4
1 
1 
1 
1 
POINT_DATA 4
VECTORS Velocity float
0.000972867 0.00149421 0.
0.00363079 0.00149421 0.
0.000972867 0.00557645 0.
0.00363079 0.00557645 0.
