# vtk DataFile Version 2.0
test grain
ASCII
DATASET UNSTRUCTURED_GRID
POINTS 4 float
0.212214 0.210869 0.
0.791992 0.210869 0.
0.212214 0.786972 0.
0.791992 0.786972 0.
CELLS 4 8
1 0
1 1
1 2
1 3
CELL_TYPES 4
1 
1 
1 
1 
POINT_DATA 4
VECTORS Velocity float
-0.0493518 0.0190756 0.
-0.184183 0.0190756 0.
-0.0493518 0.0711909 0.
-0.184183 0.0711909 0.
