# vtk DataFile Version 2.0
test grain
ASCII
DATASET UNSTRUCTURED_GRID
POINTS 4 float
0.212411 0.21104 0.
0.792729 0.21104 0.
0.212411 0.787612 0.
0.792729 0.787612 0.
CELLS 4 8
1 0
1 1
1 2
1 3
CELL_TYPES 4
1 
1 
1 
1 
POINT_DATA 4
VECTORS Velocity float
-0.00144674 0.000410836 0.
-0.00539929 0.000410836 0.
-0.00144674 0.00153326 0.
-0.00539929 0.00153326 0.
