# vtk DataFile Version 2.0
test grain
ASCII
DATASET UNSTRUCTURED_GRID
POINTS 4 float
0.212415 0.21103 0.
0.792744 0.21103 0.
0.212415 0.787576 0.
0.792744 0.787576 0.
CELLS 4 8
1 0
1 1
1 2
1 3
CELL_TYPES 4
1 
1 
1 
1 
POINT_DATA 4
VECTORS Velocity float
-0.000304387 -0.000250952 0.
-0.00113599 -0.000250952 0.
-0.000304387 -0.000936566 0.
-0.00113599 -0.000936566 0.
