# vtk DataFile Version 2.0
test grain
ASCII
DATASET UNSTRUCTURED_GRID
POINTS 4 float
0.211848 0.211324 0.
0.790628 0.211324 0.
0.211848 0.788673 0.
0.790628 0.788673 0.
CELLS 4 8
1 0
1 1
1 2
1 3
CELL_TYPES 4
1 
1 
1 
1 
POINT_DATA 4
VECTORS Velocity float
-0.019453 0.0205243 0.
-0.0725997 0.0205243 0.
-0.019453 0.0765977 0.
-0.0725997 0.0765977 0.
