# vtk DataFile Version 2.0
test grain
ASCII
DATASET UNSTRUCTURED_GRID
POINTS 4 float
0.212515 0.21094 0.
0.793117 0.21094 0.
0.212515 0.787238 0.
0.793117 0.787238 0.
CELLS 4 8
1 0
1 1
1 2
1 3
CELL_TYPES 4
1 
1 
1 
1 
POINT_DATA 4
VECTORS Velocity float
-0.00530515 -0.00289896 0.
-0.0197991 -0.00289896 0.
-0.00530515 -0.0108191 0.
-0.0197991 -0.0108191 0.
