# vtk DataFile Version 2.0
test grain
ASCII
DATASET UNSTRUCTURED_GRID
POINTS 4 float
0.211762 0.211266 0.
0.790308 0.211266 0.
0.211762 0.788455 0.
0.790308 0.788455 0.
CELLS 4 8
1 0
1 1
1 2
1 3
CELL_TYPES 4
1 
1 
1 
1 
POINT_DATA 4
VECTORS Velocity float
0.0342968 0.00153719 0.
0.127998 0.00153719 0.
0.0342968 0.00573687 0.
0.127998 0.00573687 0.
