# vtk DataFile Version 2.0
test grain
ASCII
DATASET UNSTRUCTURED_GRID
POINTS 4 float
0.212364 0.211123 0.
0.792552 0.211123 0.
0.212364 0.787922 0.
0.792552 0.787922 0.
CELLS 4 8
1 0
1 1
1 2
1 3
CELL_TYPES 4
1 
1 
1 
1 
POINT_DATA 4
VECTORS Velocity float
0.00287318 -1.6876e-05 0.
0.0107229 -1.6876e-05 0.
0.00287318 -6.29822e-05 0.
0.0107229 -6.29822e-05 0.
