# vtk DataFile Version 2.0
test grain
ASCII
DATASET UNSTRUCTURED_GRID
POINTS 4 float
0.21243 0.21103 0.
0.792801 0.21103 0.
0.21243 0.787573 0.
0.792801 0.787573 0.
CELLS 4 8
1 0
1 1
1 2
1 3
CELL_TYPES 4
1 
1 
1 
1 
POINT_DATA 4
VECTORS Velocity float
0.00261877 -0.000646838 0.
0.00977337 -0.000646838 0.
0.00261877 -0.00241403 0.
0.00977337 -0.00241403 0.
