# vtk DataFile Version 2.0
test grain
ASCII
DATASET UNSTRUCTURED_GRID
POINTS 4 float
0.212342 0.211023 0.
0.792471 0.211023 0.
0.212342 0.787548 0.
0.792471 0.787548 0.
CELLS 4 8
1 0
1 1
1 2
1 3
CELL_TYPES 4
1 
1 
1 
1 
POINT_DATA 4
VECTORS Velocity float
-0.0052029 0.0073288 0.
-0.0194175 0.0073288 0.
-0.0052029 0.0273514 0.
-0.0194175 0.0273514 0.
