# vtk DataFile Version 2.0
test grain
ASCII
DATASET UNSTRUCTURED_GRID
POINTS 4 float
0.212444 0.211025 0.
0.792852 0.211025 0.
0.212444 0.787555 0.
0.792852 0.787555 0.
CELLS 4 8
1 0
1 1
1 2
1 3
CELL_TYPES 4
1 
1 
1 
1 
POINT_DATA 4
VECTORS Velocity float
-0.00622989 0.00217029 0.
-0.0232503 0.00217029 0.
-0.00622989 0.00809962 0.
-0.0232503 0.00809962 0.
