# vtk DataFile Version 2.0
test grain
ASCII
DATASET UNSTRUCTURED_GRID
POINTS 4 float
0.212485 0.210649 0.
0.793005 0.210649 0.
0.212485 0.786153 0.
0.793005 0.786153 0.
CELLS 4 8
1 0
1 1
1 2
1 3
CELL_TYPES 4
1 
1 
1 
1 
POINT_DATA 4
VECTORS Velocity float
0.00944081 7.77504e-05 0.
0.0352336 7.77504e-05 0.
0.00944081 0.000290168 0.
0.0352336 0.000290168 0.
