# vtk DataFile Version 2.0
test grain
ASCII
DATASET UNSTRUCTURED_GRID
POINTS 4 float
0.212405 0.211046 0.
0.792708 0.211046 0.
0.212405 0.787635 0.
0.792708 0.787635 0.
CELLS 4 8
1 0
1 1
1 2
1 3
CELL_TYPES 4
1 
1 
1 
1 
POINT_DATA 4
VECTORS Velocity float
-0.000639445 0.000129482 0.
-0.00238644 0.000129482 0.
-0.000639445 0.000483233 0.
-0.00238644 0.000483233 0.
