# vtk DataFile Version 2.0
test grain
ASCII
DATASET UNSTRUCTURED_GRID
POINTS 4 float
0.211763 0.211068 0.
0.79031 0.211068 0.
0.211763 0.787717 0.
0.79031 0.787717 0.
CELLS 4 8
1 0
1 1
1 2
1 3
CELL_TYPES 4
1 
1 
1 
1 
POINT_DATA 4
VECTORS Velocity float
0.0200848 0.000466637 0.
0.0749576 0.000466637 0.
0.0200848 0.00174151 0.
0.0749576 0.00174151 0.
