# vtk DataFile Version 2.0
test grain
ASCII
DATASET UNSTRUCTURED_GRID
POINTS 4 float
0.212383 0.211092 0.
0.792626 0.211092 0.
0.212383 0.787805 0.
0.792626 0.787805 0.
CELLS 4 8
1 0
1 1
1 2
1 3
CELL_TYPES 4
1 
1 
1 
1 
POINT_DATA 4
VECTORS Velocity float
0.000305889 0.000114427 0.
0.00114159 0.000114427 0.
0.000305889 0.000427046 0.
0.00114159 0.000427046 0.
