# vtk DataFile Version 2.0
test grain
ASCII
DATASET UNSTRUCTURED_GRID
POINTS 4 float
0.212234 0.211227 0.
0.792067 0.211227 0.
0.212234 0.788309 0.
0.792067 0.788309 0.
CELLS 4 8
1 0
1 1
1 2
1 3
CELL_TYPES 4
1 
1 
1 
1 
POINT_DATA 4
VECTORS Velocity float
-0.00123541 0.0146522 0.
-0.0046106 0.0146522 0.
-0.00123541 0.0546828 0.
-0.0046106 0.0546828 0.
