# vtk DataFile Version 2.0
test grain
ASCII
DATASET UNSTRUCTURED_GRID
POINTS 4 float
0.212416 0.211036 0.
0.792746 0.211036 0.
0.212416 0.787597 0.
0.792746 0.787597 0.
CELLS 4 8
1 0
1 1
1 2
1 3
CELL_TYPES 4
1 
1 
1 
1 
POINT_DATA 4
VECTORS Velocity float
0.000368969 -9.07505e-05 0.
0.00137701 -9.07505e-05 0.
0.000368969 -0.000338686 0.
0.00137701 -0.000338686 0.
