# vtk DataFile Version 2.0
test grain
ASCII
DATASET UNSTRUCTURED_GRID
POINTS 4 float
0.212396 0.211045 0.
0.792673 0.211045 0.
0.212396 0.787631 0.
0.792673 0.787631 0.
CELLS 4 8
1 0
1 1
1 2
1 3
CELL_TYPES 4
1 
1 
1 
1 
POINT_DATA 4
VECTORS Velocity float
0.000141678 0.000202692 0.
0.00052875 0.000202692 0.
0.000141678 0.000756455 0.
0.00052875 0.000756455 0.
