# vtk DataFile Version 2.0
test grain
ASCII
DATASET UNSTRUCTURED_GRID
POINTS 4 float
0.212166 0.21111 0.
0.791815 0.21111 0.
0.212166 0.787873 0.
0.791815 0.787873 0.
CELLS 4 8
1 0
1 1
1 2
1 3
CELL_TYPES 4
1 
1 
1 
1 
POINT_DATA 4
VECTORS Velocity float
-0.00534929 -0.00511469 0.
-0.0199638 -0.00511469 0.
-0.00534929 -0.0190883 0.
-0.0199638 -0.0190883 0.
