# vtk DataFile Version 2.0
test grain
ASCII
DATASET UNSTRUCTURED_GRID
POINTS 4 float
0.21242 0.211033 0.
0.792764 0.211033 0.
0.21242 0.787584 0.
0.792764 0.787584 0.
CELLS 4 8
1 0
1 1
1 2
1 3
CELL_TYPES 4
1 
1 
1 
1 
POINT_DATA 4
VECTORS Velocity float
0.000582114 7.72509e-05 0.
0.00217248 7.72509e-05 0.
0.000582114 0.000288304 0.
0.00217248 0.000288304 0.
