# vtk DataFile Version 2.0
test grain
ASCII
DATASET UNSTRUCTURED_GRID
POINTS 4 float
0.211863 0.210245 0.
0.790684 0.210245 0.
0.211863 0.784646 0.
0.790684 0.784646 0.
CELLS 4 8
1 0
1 1
1 2
1 3
CELL_TYPES 4
1 
1 
1 
1 
POINT_DATA 4
VECTORS Velocity float
-0.0720291 0.0168768 0.
-0.268816 0.0168768 0.
-0.0720291 0.0629851 0.
-0.268816 0.0629851 0.
