# vtk DataFile Version 2.0
test grain
ASCII
DATASET UNSTRUCTURED_GRID
POINTS 4 float
0.212407 0.211044 0.
0.792713 0.211044 0.
0.212407 0.787628 0.
0.792713 0.787628 0.
CELLS 4 8
1 0
1 1
1 2
1 3
CELL_TYPES 4
1 
1 
1 
1 
POINT_DATA 4
VECTORS Velocity float
-5.68611e-05 -0.000156403 0.
-0.000212209 -0.000156403 0.
-5.68611e-05 -0.000583705 0.
-0.000212209 -0.000583705 0.
