# vtk DataFile Version 2.0
test grain
ASCII
DATASET UNSTRUCTURED_GRID
POINTS 4 float
0.212409 0.211062 0.
0.792722 0.211062 0.
0.212409 0.787694 0.
0.792722 0.787694 0.
CELLS 4 8
1 0
1 1
1 2
1 3
CELL_TYPES 4
1 
1 
1 
1 
POINT_DATA 4
VECTORS Velocity float
0.00422333 -0.00164734 0.
0.0157617 -0.00164734 0.
0.00422333 -0.00614798 0.
0.0157617 -0.00614798 0.
